# Probe 0 (0.052 0.01838 0)
# Probe 1 (0.052483 0.018449 0)
# Probe 2 (0.052966 0.018518 0)
# Probe 3 (0.053448 0.018587 0)
# Probe 4 (0.053931 0.018656 0)
# Probe 5 (0.054414 0.018725 0)
# Probe 6 (0.054897 0.018794 0)
# Probe 7 (0.055379 0.018863 0)
# Probe 8 (0.055862 0.018932 0)
# Probe 9 (0.056345 0.019001 0)
# Probe 10 (0.056828 0.01907 0)
# Probe 11 (0.05731 0.019139 0)
# Probe 12 (0.057793 0.019208 0)
# Probe 13 (0.058276 0.019277 0)
# Probe 14 (0.058759 0.019346 0)
# Probe 15 (0.059241 0.019415 0)
# Probe 16 (0.059724 0.019483 0)
# Probe 17 (0.060207 0.019552 0)
# Probe 18 (0.06069 0.019621 0)
# Probe 19 (0.061172 0.01969 0)
# Probe 20 (0.061655 0.019759 0)
# Probe 21 (0.062138 0.019828 0)
# Probe 22 (0.062621 0.019897 0)
# Probe 23 (0.063103 0.019966 0)
# Probe 24 (0.063586 0.020035 0)
# Probe 25 (0.064069 0.020104 0)
# Probe 26 (0.064552 0.020173 0)
# Probe 27 (0.065034 0.020242 0)
# Probe 28 (0.065517 0.020311 0)
# Probe 29 (0.066 0.02038 0)
# Probe 30 (0.066 0.02043 0)
# Probe 31 (0.066454 0.02043 0)
# Probe 32 (0.066908 0.02043 0)
# Probe 33 (0.067361 0.02043 0)
# Probe 34 (0.067815 0.02043 0)
# Probe 35 (0.068269 0.02043 0)
# Probe 36 (0.068723 0.02043 0)
# Probe 37 (0.069176 0.02043 0)
# Probe 38 (0.06963 0.02043 0)
# Probe 39 (0.070084 0.02043 0)
# Probe 40 (0.070538 0.02043 0)
# Probe 41 (0.070992 0.02043 0)
# Probe 42 (0.071445 0.02043 0)
# Probe 43 (0.071899 0.02043 0)
# Probe 44 (0.072353 0.02043 0)
# Probe 45 (0.072807 0.02043 0)
# Probe 46 (0.073261 0.02043 0)
# Probe 47 (0.073714 0.02043 0)
# Probe 48 (0.074168 0.02043 0)
# Probe 49 (0.074622 0.02043 0)
# Probe 50 (0.075076 0.02043 0)
# Probe 51 (0.075529 0.02043 0)
# Probe 52 (0.075983 0.02043 0)
# Probe 53 (0.076437 0.02043 0)
# Probe 54 (0.076891 0.02043 0)
# Probe 55 (0.077345 0.02043 0)
# Probe 56 (0.077798 0.02043 0)
# Probe 57 (0.078252 0.02043 0)
# Probe 58 (0.078706 0.02043 0)
# Probe 59 (0.07916 0.02043 0)
# Probe 60 (0.079613 0.02043 0)
# Probe 61 (0.080067 0.02043 0)
# Probe 62 (0.080521 0.02043 0)
# Probe 63 (0.080975 0.02043 0)
# Probe 64 (0.081429 0.02043 0)
# Probe 65 (0.081882 0.02043 0)
# Probe 66 (0.082336 0.02043 0)
# Probe 67 (0.08279 0.02043 0)
# Probe 68 (0.083244 0.02043 0)
# Probe 69 (0.083697 0.02043 0)
# Probe 70 (0.084151 0.02043 0)
# Probe 71 (0.084605 0.02043 0)
# Probe 72 (0.085059 0.02043 0)
# Probe 73 (0.085513 0.02043 0)
# Probe 74 (0.085966 0.02043 0)
# Probe 75 (0.08642 0.02043 0)
# Probe 76 (0.086874 0.02043 0)
# Probe 77 (0.087328 0.02043 0)
# Probe 78 (0.087782 0.02043 0)
# Probe 79 (0.088235 0.02043 0)
# Probe 80 (0.088689 0.02043 0)
# Probe 81 (0.089143 0.02043 0)
# Probe 82 (0.089597 0.02043 0)
# Probe 83 (0.09005 0.02043 0)
# Probe 84 (0.090504 0.02043 0)
# Probe 85 (0.090958 0.02043 0)
# Probe 86 (0.091412 0.02043 0)
# Probe 87 (0.091866 0.02043 0)
# Probe 88 (0.092319 0.02043 0)
# Probe 89 (0.092773 0.02043 0)
# Probe 90 (0.093227 0.02043 0)
# Probe 91 (0.093681 0.02043 0)
# Probe 92 (0.094134 0.02043 0)
# Probe 93 (0.094588 0.02043 0)
# Probe 94 (0.095042 0.02043 0)
# Probe 95 (0.095496 0.02043 0)
# Probe 96 (0.09595 0.02043 0)
# Probe 97 (0.096403 0.02043 0)
# Probe 98 (0.096857 0.02043 0)
# Probe 99 (0.097311 0.02043 0)
# Probe 100 (0.097765 0.02043 0)
# Probe 101 (0.098218 0.02043 0)
# Probe 102 (0.098672 0.02043 0)
# Probe 103 (0.099126 0.02043 0)
# Probe 104 (0.09958 0.02043 0)
# Probe 105 (0.10003 0.02043 0)
# Probe 106 (0.10049 0.02043 0)
# Probe 107 (0.10094 0.02043 0)
# Probe 108 (0.10139 0.02043 0)
# Probe 109 (0.10185 0.02043 0)
# Probe 110 (0.1023 0.02043 0)
# Probe 111 (0.10276 0.02043 0)
# Probe 112 (0.10321 0.02043 0)
# Probe 113 (0.10366 0.02043 0)
# Probe 114 (0.10412 0.02043 0)
# Probe 115 (0.10457 0.02043 0)
# Probe 116 (0.10503 0.02043 0)
# Probe 117 (0.10548 0.02043 0)
# Probe 118 (0.10593 0.02043 0)
# Probe 119 (0.10639 0.02043 0)
# Probe 120 (0.10684 0.02043 0)
# Probe 121 (0.10729 0.02043 0)
# Probe 122 (0.10775 0.02043 0)
# Probe 123 (0.1082 0.02043 0)
# Probe 124 (0.10866 0.02043 0)
# Probe 125 (0.10911 0.02043 0)
# Probe 126 (0.10956 0.02043 0)
# Probe 127 (0.11002 0.02043 0)
# Probe 128 (0.11047 0.02043 0)
# Probe 129 (0.11092 0.02043 0)
# Probe 130 (0.11138 0.02043 0)
# Probe 131 (0.11183 0.02043 0)
# Probe 132 (0.11229 0.02043 0)
# Probe 133 (0.11274 0.02043 0)
# Probe 134 (0.11319 0.02043 0)
# Probe 135 (0.11365 0.02043 0)
# Probe 136 (0.1141 0.02043 0)
# Probe 137 (0.11455 0.02043 0)
# Probe 138 (0.11501 0.02043 0)
# Probe 139 (0.11546 0.02043 0)
# Probe 140 (0.11592 0.02043 0)
# Probe 141 (0.11637 0.02043 0)
# Probe 142 (0.11682 0.02043 0)
# Probe 143 (0.11728 0.02043 0)
# Probe 144 (0.11773 0.02043 0)
# Probe 145 (0.11818 0.02043 0)
# Probe 146 (0.11864 0.02043 0)
# Probe 147 (0.11909 0.02043 0)
# Probe 148 (0.11955 0.02043 0)
# Probe 149 (0.12 0.02043 0)
#          Probe                0                1                2                3                4                5                6                7                8                9               10               11               12               13               14               15               16               17               18               19               20               21               22               23               24               25               26               27               28               29               30               31               32               33               34               35               36               37               38               39               40               41               42               43               44               45               46               47               48               49               50               51               52               53               54               55               56               57               58               59               60               61               62               63               64               65               66               67               68               69               70               71               72               73               74               75               76               77               78               79               80               81               82               83               84               85               86               87               88               89               90               91               92               93               94               95               96               97               98               99              100              101              102              103              104              105              106              107              108              109              110              111              112              113              114              115              116              117              118              119              120              121              122              123              124              125              126              127              128              129              130              131              132              133              134              135              136              137              138              139              140              141              142              143              144              145              146              147              148              149
#           Time
           0.001       657094.942       954486.817       973988.342       975037.913        973862.35       984678.884       980325.693       1001974.05       965148.796        992976.16       994039.298       983364.781       991078.357       967817.996       1002324.15       994729.006       960613.489       979485.028       1008999.95       974319.964       953716.355       1002757.11       993470.751        960967.31       972817.116       1006146.09       995550.682       960290.418        992232.86       1459243.67       1452774.02       1462003.88       1474050.08       1439776.33       1449901.86       1463375.77       1418898.16       1378848.71        1327032.4        1209994.1        1150551.8       1102002.68       1032058.85       963440.274       945872.278       893409.685       823652.014       808577.663        732764.45       699441.881       678684.698       633408.878        605926.15       584267.465       552045.792       536519.721       494833.611        476886.45       456130.204       431422.562       421123.046       399312.412       395300.819       381772.247       372406.251       398150.521       505171.461       629663.492       667387.385       684002.073       881420.576       1110764.19       1153937.89       1127789.18       1125699.05       1134616.66       1126841.08       1108190.29       1107633.87       1091005.35       1075987.43       1055388.08       1036133.99       1025776.07       1016740.18       995985.866       980676.737       969485.183       948651.492       922853.345       909551.534       899749.729       874498.871       857462.287        849350.48       839470.437       825108.811       808327.481       795451.616       778885.199       765469.162       748058.018       738288.211       725967.294       718208.417       708412.185       688964.881       680843.838       663800.062       658513.238       648780.483       644814.797       623393.096       616167.531       599619.784       583184.106       585770.381       596395.643       703815.419       911774.941       956516.772       992119.254       1004486.88       1001018.99       998596.585       983573.425       972260.903       962246.635       958705.173       963091.901       952857.183       935563.924        923155.13       916155.247       915369.469       905874.096       902360.501       893448.048       877700.175       858477.237       857274.961       852789.701       841941.787       835186.142       827807.711       824823.268        816379.29       809728.326       786626.375       775983.819
           0.002       659405.757       966308.942       986435.738       967595.859       968169.659       988807.685       987205.892       962714.856        1002663.7       990510.977       966350.843       994444.381       970074.621       973170.544        978400.87        964815.28       1006621.89       986427.177       961477.523       1006679.99       999434.521       958401.895       981598.086       1001093.51       954572.185       951217.812       979721.838       995716.576       999532.828       1389251.39       1489637.27       1459066.72       1464827.39       1472552.12        1445738.7       1447222.01       1431568.85       1368777.76       1302914.16       1233793.37       1153540.88       1069802.57       1042823.46       1004310.26       913798.543       868021.242       851522.654       798878.662       729871.348       719217.428       656815.812       640722.339       612955.096       572010.214       567154.614       525998.907       509871.256       474824.627       460434.022       434946.883       416401.606       409194.879       385754.553        385216.11       371702.933       392973.302       499261.247       625021.171       670096.416       680986.441       858859.291       1105515.07       1145327.78        1154835.8       1139404.22       1119097.61       1118735.72        1125320.3       1112155.13       1093561.38       1087414.89       1065556.79       1045016.67          1028368       1019072.16       993107.038       967409.256       959402.441       946047.453       921669.751       910178.706       900761.862       882532.878       864259.614        853394.17       832831.687       823430.146       816167.665       786373.306       764356.687       761797.523       755731.754       743366.179       731282.571        718362.01       690524.116       681789.893       677819.193       677751.672        663370.32       654054.735        632086.95       616391.924       612289.845       608886.903       602505.368       582900.977       588493.614       687167.387       904136.985       962591.024        993201.92       996621.172       994582.413       989501.839       993411.878       988517.385       971712.549       955066.003       950433.512       950382.299       949364.245       932014.072       923834.301       918369.002       897698.363       891879.248       889310.605       886111.704       874777.824       866154.686       850394.187       845735.475       842871.448       823916.307       820969.878       819377.257       807207.954       798309.762       793807.678
           0.003       658174.967        957522.13       977127.122        978203.89       989947.596       1002862.49       967452.103       991485.259       965948.947       992236.316       995006.752       980458.505       1001435.94       980616.566       983249.862       1009867.96       970605.385       962107.038       984422.537       993671.303       964852.703        980025.78       1003240.61       988173.443       950898.594       973217.701       1010833.93       980539.973       986135.718       1379475.67        1463962.8       1443730.01        1470376.6        1455848.4       1433442.97       1472096.48       1433777.83       1366873.86       1333488.18       1208512.87       1128554.76       1108554.22       1038555.74       967764.719        949461.88       894972.848       826103.538       795267.682       735459.342        696046.69         679871.4       639366.729       609338.292       586435.619       555294.129       534539.444       495723.266       479485.923       456220.728       435960.199       420905.313       402043.925       393185.343       375889.529       369980.775       395806.555       485359.473       641342.463       658303.005       687959.219       830762.972       1082340.73        1154801.2        1174789.3       1146022.77       1135156.48        1127674.9       1119767.35       1108441.67       1096108.48       1089313.15       1051700.88       1036490.28        1031751.7       1021935.96       993947.055       972215.917       965633.327       947784.969       928274.825       915652.062       906154.965        879768.85       861016.109       855062.189       834017.793       816202.068       806593.685       787785.913       779339.818       773072.573       756809.793       746672.329       715211.938       709023.431       699505.826       698708.269       694660.172       674844.148       646776.889       644698.971       632008.197       622053.599       618780.214       614933.822        594293.65       582969.899       586062.142        686299.01       907291.469       970504.828       1003701.88       991493.556       989449.404       989426.276       989539.647       988090.604       974304.499       959614.639        955003.21       949627.284       942555.728        926817.67       919459.329       910021.451       901109.382       900934.376       896263.461       880729.951       860031.655       855864.565       850836.564       843241.957        842684.03       834343.272       826292.427       817173.944       797247.553       790609.539       787475.257
           0.004       657806.914       962138.795       987357.203       983351.202       993796.647       992365.261       961768.429       987338.216       974895.134       965577.964       992964.565        969756.61       965262.872       997159.295       966843.971       968463.056        1003146.7       973275.503       962393.461       1007617.14       984187.144       969846.607       1000355.06       989114.002        954160.14       981861.793       1006473.07       968231.182       984663.784       1427842.68       1461464.25       1452322.46       1471622.38       1447111.32       1435229.42       1456302.36       1425634.01       1377943.81       1331356.46        1207073.8       1131655.07       1109570.62       1034319.99       966476.671       948857.711       887081.445       828312.809       811435.296       736567.815       699807.778       683187.067       635160.658       605936.595       581888.273       555885.129       536972.296       501960.879       478135.649       457119.373       433509.395       419894.194       401201.207       387982.097       382425.816        380879.57       393093.205       507328.414       621602.219       668545.369       670340.504       818185.732       1070559.98       1156688.28       1165459.76       1166439.92       1148387.48       1124652.08       1114744.05        1110964.3       1097999.09       1085769.15       1055015.65       1044478.52       1022326.59       1011055.82       999591.455       978505.321       965994.808       948445.459       925065.699       906641.615       894973.836       868593.489       856329.502       848043.322       841049.142       822731.729       819106.412       801092.729       778021.591       764275.828       749677.703       737810.568       735032.544       729525.844       689467.583         684812.6       679154.932       671456.632         670777.7       660407.935        621766.72       617497.163       614449.148       603198.269        601313.47        596480.28       593752.801       673306.566       881322.375        950048.64       1000628.61       1007043.11       1002756.37       985472.757       987090.918       984089.636       977240.024        958497.97       948020.468       951375.387       948729.376       938845.639       931514.807       910064.163       897321.862       895121.151        891591.98       879416.915       869201.781       863570.456       851772.455       844790.318       841021.277       828906.226       808638.706       807517.025       808207.704       801224.078        799102.82
           0.005       661841.223       978363.622       967383.759       986826.614       982141.069       990188.326       969513.436       996149.913       966925.204       968343.753       995488.781       971548.564       996989.906       988963.245       989869.832       991948.142       975204.959       995486.561       979510.501       978094.351       995277.629       956786.224       957152.218       986312.389       994076.486       972113.167       960669.773       997332.742       1028524.16       1426206.81       1481427.74       1477276.56       1447916.34       1448756.91       1480919.77       1451713.54       1430515.94       1389287.12       1309220.71        1229613.9       1171294.31       1067350.67        1039860.4       1006506.09        919912.94       880191.442       854249.881       793496.209       734502.782       711166.466       663787.666        636255.71       613903.057       586800.719       560846.234       535323.252       496653.564       481121.303       445908.494       442754.823       416197.797       406120.682       392962.386       376992.663       371004.762       396497.104       497397.056       645450.336       656865.223       678645.849       787734.322          1061424       1173163.83       1157449.77       1158795.52       1147505.39       1136326.04       1126308.08       1108920.13       1098469.19       1084049.39       1055893.25       1040620.69       1023213.08        1013379.4       992866.805         977127.1       965166.078       949504.596        922853.67       905540.209       896551.818       873939.753       860926.328       850365.645       841709.323       821355.905       816896.284       787729.673       766830.317       765797.416       755937.378       746932.882       730323.816        717081.49       692831.504       684558.998       684029.106       676727.585       655061.099       638382.697        628590.47       625785.321       618516.259       616074.237       596692.021       579141.604       587979.954       677965.901        907163.11       966445.268       1005579.69       999814.428       989726.882       988002.074       988139.966       982994.841       976796.309       962442.945        950366.01       951617.752       943755.561       927035.935       918327.421       914146.128       911804.022       904536.046       897115.665       879785.502       866658.027       857649.877       849029.625       845556.993       844476.669        835093.51       831967.472       826991.568        803304.19       786563.211       784456.187
           0.006       662725.665       967122.248       990217.088       979607.797       989501.315       995032.346       961400.665       980180.343        981699.63       967465.156       995295.761       964938.361       972678.926       1003670.42       962705.698       974817.198       1001283.78       971807.098       962283.377       1012345.81       994534.183       958674.913       990995.897       1000144.69       952682.549        968898.78        1002352.9       968803.633       983584.049       1426185.22       1462689.01       1462911.25       1473543.49       1447823.96       1441680.44       1466291.96       1424550.52       1376547.62       1325173.15       1214365.23       1140334.47       1105097.61       1035249.49       958454.199       937871.835       893883.655       827354.261       793491.131       745581.582       701993.322       671896.034       642129.541       600075.602       591302.465       555333.655       530703.747       502776.206       470619.425       463702.825       428435.026        421600.87       403629.266       388523.675       381483.396       370088.313       396995.347       485808.005       638649.637       647111.495       687444.627       798857.113       1081359.98       1164970.97       1169165.42          1143711        1135895.8       1127839.02       1114597.73       1112908.84       1107734.19       1091589.93        1063102.6       1044114.46       1029600.89       1022287.84       993813.636       972014.584       966220.053       945021.294       933064.196       911072.773       898041.054       881930.442       859809.024       847366.198       835724.426        823800.05       813768.597       802317.171       769691.205       759043.449       745829.747       740855.916       729739.044       723539.952       692226.623       683054.591       685848.495        675587.08       662142.324       651811.924       629058.897         621436.8       619544.633       605983.536       597921.154       587108.744       588597.427       665264.996       889718.816       961482.979       1009816.47       1009323.82       1003286.41       980774.649       973879.956        982882.73       977077.566       974258.685       960364.911       951347.132       940370.357        925136.45       920607.693       908141.296       898951.969       901768.959       894380.671       887061.248       868234.403       860938.337       848621.855       842839.948       842250.845       826777.655       824040.593       816917.629       808247.551       799064.015       789626.896
           0.007       659860.086       965386.463       986568.931       982997.169       988625.336       975868.099       975405.469       968008.618       989771.472       967149.843       983065.039        981772.62       962740.894       983638.269       989078.105       965073.413       996172.817       1012466.15       996277.301       957008.569       973065.952        999186.35       966654.843       949834.935       1004367.52         995695.9        969519.48       984643.012       1030309.69       1430325.01       1476515.93        1469776.5       1455821.61       1447683.81        1468538.4       1452851.27       1411817.12       1389517.42       1323755.33       1202950.09       1152682.57       1109380.54       1004478.77       1001447.94        921714.36       897254.396       822188.101       806154.072       728729.636       706070.769       678393.827        636608.04       610658.094       581435.277       556114.974       543052.663        502152.58       470737.015        463476.36       433161.312       423490.361       399200.921       388305.535       379146.327       373309.623       393956.071       488042.986       641777.597       665428.187       694359.699       801814.014        1041377.4       1136369.02       1165628.84       1162171.59       1153017.67       1138569.92       1119397.05        1114569.9       1098625.43       1077166.66       1069268.49       1050373.22        1024788.7       1015729.03       994925.113       972633.496       964031.242       941267.886       926965.939       912218.361       901598.014       881253.954       848288.648       840697.975        838362.29       832995.679       826168.474        784951.45       766397.605       759464.771       753875.952       744750.109       729659.867       725930.249       699009.758       679016.832       674427.822       672834.641        664698.43       661095.666       636668.331       612893.482       611959.167       600680.888       595460.042       594805.784       597247.164       678077.684       880323.111         944057.4       1003398.47       1014805.73       998962.378       982226.611       976812.925       989659.669        983983.31       963681.547       955950.444       948258.038       947711.208       930056.267       921384.223       907843.369       903133.555       904943.157       899001.265       882919.601       865755.312       862443.972        851619.68       842896.323       838084.433       823451.669       818700.525       816807.777       812430.435        796634.98       790385.243
           0.008       662511.816       991726.997       982687.142       972974.452       976186.512       995273.536       984413.168       966799.847       1004905.71       988129.727       961478.478       1003771.89       992045.707       961449.088       999804.427       992333.168       964086.903       998218.399       991426.192       968314.077       1004191.51        967622.42       961689.265       993158.533       971581.337        957832.88        975560.39       1000224.07       1003137.98       1386762.97       1493328.92       1466283.83       1467763.91        1480719.7       1447083.47       1444265.32       1421640.64       1377748.39       1318885.65       1217086.13       1171745.25       1094917.05       1016764.81       1001866.95       928439.426       871232.237       851188.778       780035.148       754065.115       690119.953       668151.942       642549.517       619723.052       573335.788       569255.627       523835.491       499173.534       485769.124       454621.656       437679.883       421255.494       400615.412       396000.903       376667.779       378609.339       386387.464       497957.426       617552.691       661755.547       683015.651       774753.936       1066738.74       1161890.66       1164768.42       1170719.78       1154712.87       1134587.88       1118889.87       1115154.74       1095121.72       1088108.03       1063055.15       1034700.56       1023833.09       1016720.12       998460.749       982903.823       976347.866       951902.939       922294.297       908616.675       899592.305       886059.882       859174.456       848089.675       834410.105       822177.355       816747.945       806791.756       773557.578       759684.654       745084.811        741680.14        727147.62        723734.52       708770.976       683715.151       676498.962       666628.181       660826.084       658983.247       640685.628       612165.232       607878.955       604794.204       596572.527       598084.485       599933.044        673455.06        878316.33       943019.025       1005387.31       1014132.48       1007380.47       992109.151       988896.462         977355.6       974778.783       970010.235       948884.469       945337.395       944847.851       940465.743       934504.637        910290.52       894025.837        890254.81       893651.551        886595.37       867018.924       866020.013       852875.969       847834.148       844193.194       829683.274       813943.063       814064.956       805624.777       802074.685       798016.965