# Probe 0 (0.09 0.011 0)
# Probe 1 (0.062 0.011 0)
# Probe 2 (0.052 0.0082 0)
# Probe 3 (0.012 0.011 0)
# Probe 4 (0.012 0.015715 0)
#          Probe                0                1                2                3                4
#           Time
           0.001       623330.703       616520.345       657438.324       265347.684       265347.684
           0.002       609409.882       606601.246       657317.982       265347.684       265347.684
           0.003       611682.801       605278.698       663343.235       265347.684       265347.684
           0.004       609696.002       606782.441       657879.912       265347.684       265347.684
           0.005       627713.062       606376.885       658721.728       265347.684       265347.684
           0.006        608432.99       606646.318       657059.675       265347.684       265347.684
           0.007       612732.305       602376.558       659854.697       265347.684       265347.684
           0.008       617775.525       613810.533       659779.591       265347.684       265347.684
           0.009       609238.153       608501.464       659413.213       265347.684       265347.684
            0.01       610708.537       616536.976       660647.516       265347.684       265347.684
           0.011       612246.757       616609.207       661216.578       265347.684       265347.684
           0.012       617586.924       603660.509       661044.269       265347.684       265347.684
           0.013       617909.352       617957.256       657723.836       265347.684       265347.684
           0.014       611488.058       612979.117       659815.328       265347.684       265347.684
           0.015       620783.081       618987.458       658787.547       265347.684       265347.684
           0.016       614773.376       617665.056       661465.123       265347.684       265347.684
           0.017       624297.427       611285.613       656017.511       265347.684       265347.684
           0.018       614368.261       611932.371       654275.621       265347.684       265347.684
           0.019       624860.751        611375.22       665608.016       265347.684       265347.684
            0.02       609634.693       611562.531       656158.533       265347.684       265347.684
           0.021       619397.068       618954.257       667233.903       265347.684       265347.684
           0.022       615869.399       616369.851       662030.506       265347.684       265347.684
           0.023       607668.228       608997.241       662142.483       265347.684       265347.684
           0.024        622919.83       618231.513       662497.396       265347.684       265347.684
           0.025       617120.158       608256.912       654782.584       265347.684       265347.684
