# Probe 0 (0.015 5e-05 0)
# Probe 1 (0.015517 0.00011892 0)
# Probe 2 (0.016034 0.00018784 0)
# Probe 3 (0.016552 0.00025676 0)
# Probe 4 (0.017069 0.00032568 0)
# Probe 5 (0.017586 0.0003946 0)
# Probe 6 (0.018103 0.00046352 0)
# Probe 7 (0.018621 0.00053244 0)
# Probe 8 (0.019138 0.00060137 0)
# Probe 9 (0.019655 0.00067029 0)
# Probe 10 (0.020172 0.00073921 0)
# Probe 11 (0.02069 0.00080813 0)
# Probe 12 (0.021207 0.00087705 0)
# Probe 13 (0.021724 0.00094597 0)
# Probe 14 (0.022241 0.0010149 0)
# Probe 15 (0.022759 0.0010838 0)
# Probe 16 (0.023276 0.0011527 0)
# Probe 17 (0.023793 0.0012217 0)
# Probe 18 (0.02431 0.0012906 0)
# Probe 19 (0.024828 0.0013595 0)
# Probe 20 (0.025345 0.0014284 0)
# Probe 21 (0.025862 0.0014973 0)
# Probe 22 (0.026379 0.0015663 0)
# Probe 23 (0.026897 0.0016352 0)
# Probe 24 (0.027414 0.0017041 0)
# Probe 25 (0.027931 0.001773 0)
# Probe 26 (0.028448 0.0018419 0)
# Probe 27 (0.028966 0.0019109 0)
# Probe 28 (0.029483 0.0019798 0)
# Probe 29 (0.03 0.0020487 0)
# Probe 30 (0.03 0.0020487 0)
# Probe 31 (0.030489 0.0021862 0)
# Probe 32 (0.030978 0.0023237 0)
# Probe 33 (0.031467 0.0024613 0)
# Probe 34 (0.031956 0.0025988 0)
# Probe 35 (0.032444 0.0027363 0)
# Probe 36 (0.032933 0.0028738 0)
# Probe 37 (0.033422 0.0030113 0)
# Probe 38 (0.033911 0.0031489 0)
# Probe 39 (0.0344 0.0032864 0)
# Probe 40 (0.034889 0.0034239 0)
# Probe 41 (0.035378 0.0035614 0)
# Probe 42 (0.035867 0.0036989 0)
# Probe 43 (0.036356 0.0038365 0)
# Probe 44 (0.036844 0.003974 0)
# Probe 45 (0.037333 0.0041115 0)
# Probe 46 (0.037822 0.004249 0)
# Probe 47 (0.038311 0.0043865 0)
# Probe 48 (0.0388 0.0045241 0)
# Probe 49 (0.039289 0.0046616 0)
# Probe 50 (0.039778 0.0047991 0)
# Probe 51 (0.040267 0.0049366 0)
# Probe 52 (0.040756 0.0050741 0)
# Probe 53 (0.041244 0.0052117 0)
# Probe 54 (0.041733 0.0053492 0)
# Probe 55 (0.042222 0.0054867 0)
# Probe 56 (0.042711 0.0056242 0)
# Probe 57 (0.0432 0.0057617 0)
# Probe 58 (0.043689 0.0058993 0)
# Probe 59 (0.044178 0.0060368 0)
# Probe 60 (0.044667 0.0061743 0)
# Probe 61 (0.045156 0.0063118 0)
# Probe 62 (0.045644 0.0064493 0)
# Probe 63 (0.046133 0.0065869 0)
# Probe 64 (0.046622 0.0067244 0)
# Probe 65 (0.047111 0.0068619 0)
# Probe 66 (0.0476 0.0069994 0)
# Probe 67 (0.048089 0.0071369 0)
# Probe 68 (0.048578 0.0072745 0)
# Probe 69 (0.049067 0.007412 0)
# Probe 70 (0.049556 0.0075495 0)
# Probe 71 (0.050044 0.007687 0)
# Probe 72 (0.050533 0.0078245 0)
# Probe 73 (0.051022 0.0079621 0)
# Probe 74 (0.051511 0.0080996 0)
# Probe 75 (0.052 0.0082371 0)
# Probe 76 (0.052 0.0082371 0)
# Probe 77 (0.0525 0.0083777 0)
# Probe 78 (0.053 0.0085184 0)
# Probe 79 (0.0535 0.008659 0)
# Probe 80 (0.054 0.0087997 0)
# Probe 81 (0.0545 0.0089403 0)
# Probe 82 (0.055 0.009081 0)
# Probe 83 (0.0555 0.0092216 0)
# Probe 84 (0.056 0.0093623 0)
# Probe 85 (0.0565 0.0095029 0)
# Probe 86 (0.057 0.0096436 0)
# Probe 87 (0.0575 0.0097842 0)
# Probe 88 (0.058 0.0099248 0)
# Probe 89 (0.0585 0.010065 0)
# Probe 90 (0.059 0.010206 0)
# Probe 91 (0.0595 0.010347 0)
# Probe 92 (0.06 0.010487 0)
# Probe 93 (0.0605 0.010628 0)
# Probe 94 (0.061 0.010769 0)
# Probe 95 (0.0615 0.010909 0)
# Probe 96 (0.062 0.01105 0)
# Probe 97 (0.062 0.011 0)
# Probe 98 (0.062509 0.011 0)
# Probe 99 (0.063018 0.011 0)
# Probe 100 (0.063527 0.011 0)
# Probe 101 (0.064036 0.011 0)
# Probe 102 (0.064545 0.011 0)
# Probe 103 (0.065055 0.011 0)
# Probe 104 (0.065564 0.011 0)
# Probe 105 (0.066073 0.011 0)
# Probe 106 (0.066582 0.011 0)
# Probe 107 (0.067091 0.011 0)
# Probe 108 (0.0676 0.011 0)
# Probe 109 (0.068109 0.011 0)
# Probe 110 (0.068618 0.011 0)
# Probe 111 (0.069127 0.011 0)
# Probe 112 (0.069636 0.011 0)
# Probe 113 (0.070145 0.011 0)
# Probe 114 (0.070655 0.011 0)
# Probe 115 (0.071164 0.011 0)
# Probe 116 (0.071673 0.011 0)
# Probe 117 (0.072182 0.011 0)
# Probe 118 (0.072691 0.011 0)
# Probe 119 (0.0732 0.011 0)
# Probe 120 (0.073709 0.011 0)
# Probe 121 (0.074218 0.011 0)
# Probe 122 (0.074727 0.011 0)
# Probe 123 (0.075236 0.011 0)
# Probe 124 (0.075745 0.011 0)
# Probe 125 (0.076255 0.011 0)
# Probe 126 (0.076764 0.011 0)
# Probe 127 (0.077273 0.011 0)
# Probe 128 (0.077782 0.011 0)
# Probe 129 (0.078291 0.011 0)
# Probe 130 (0.0788 0.011 0)
# Probe 131 (0.079309 0.011 0)
# Probe 132 (0.079818 0.011 0)
# Probe 133 (0.080327 0.011 0)
# Probe 134 (0.080836 0.011 0)
# Probe 135 (0.081345 0.011 0)
# Probe 136 (0.081855 0.011 0)
# Probe 137 (0.082364 0.011 0)
# Probe 138 (0.082873 0.011 0)
# Probe 139 (0.083382 0.011 0)
# Probe 140 (0.083891 0.011 0)
# Probe 141 (0.0844 0.011 0)
# Probe 142 (0.084909 0.011 0)
# Probe 143 (0.085418 0.011 0)
# Probe 144 (0.085927 0.011 0)
# Probe 145 (0.086436 0.011 0)
# Probe 146 (0.086945 0.011 0)
# Probe 147 (0.087455 0.011 0)
# Probe 148 (0.087964 0.011 0)
# Probe 149 (0.088473 0.011 0)
# Probe 150 (0.088982 0.011 0)
# Probe 151 (0.089491 0.011 0)
# Probe 152 (0.09 0.011 0)
#          Probe                0                1                2                3                4                5                6                7                8                9               10               11               12               13               14               15               16               17               18               19               20               21               22               23               24               25               26               27               28               29               30               31               32               33               34               35               36               37               38               39               40               41               42               43               44               45               46               47               48               49               50               51               52               53               54               55               56               57               58               59               60               61               62               63               64               65               66               67               68               69               70               71               72               73               74               75               76               77               78               79               80               81               82               83               84               85               86               87               88               89               90               91               92               93               94               95               96               97               98               99              100              101              102              103              104              105              106              107              108              109              110              111              112              113              114              115              116              117              118              119              120              121              122              123              124              125              126              127              128              129              130              131              132              133              134              135              136              137              138              139              140              141              142              143              144              145              146              147              148              149              150              151              152
#           Time
           0.001       265355.156       422238.896       417570.032        421573.21       416340.373       416973.044       421540.996       416640.235        419179.37       421518.717       417977.897       417900.364       419973.921       419534.671       418369.822       417604.273       417464.052       418567.368       417750.827       421553.525       420410.745       422480.918       421517.091       418733.817        420641.13       418120.435       419421.345       418713.822       420195.034       418173.419       418173.419       641021.424       646709.198       653799.575       655654.733       654233.682       654195.396       654335.298       650597.472       650597.775       667920.999        649373.92        656617.38       652791.807        660158.28       659808.561       661751.904       660893.733       656274.479       659681.815         650144.1       667755.364       651684.194       650553.071       661792.808       658796.886       658082.553       654376.801       658545.112       647710.559       658750.923       657210.573        660790.53       658857.109       659473.107       659541.999       658605.155       656765.277       663358.203       657395.078       660803.466       654336.776       654196.671       657678.821       663338.847       665505.263       665505.263       660956.436       655163.187       658857.758       662750.064       663322.828       661547.506       655156.416       653607.894        658063.46       658028.459       662856.191       659681.958        652884.86        654478.19       662943.087        657790.16        655351.32       661777.159       659234.178       621061.311       616520.345       296339.588       269776.994       283404.179       278349.255        284614.14        314040.54       429226.692        516987.05       617332.886       631609.206       647645.933       645558.165        652382.85       654993.462       661323.588       657501.647       658555.476       660810.904       658577.561       660408.047       651389.978       658590.577       659013.173       731069.817       952728.328       1103798.73       1202448.68       1270663.19        1240071.1       1218083.05       1207590.42        1170916.2       1148847.05       1114345.71       1084335.21        1054021.8       1032857.67       1002497.64       969427.984       943276.504       917927.201       882447.091       850311.811       831576.584        818216.46       787036.845       760404.242       752459.506       736712.651       696121.356       674261.776       667092.175       644366.994       628374.306       623330.703
           0.002       265355.157       411094.099       423054.631       418699.176       420618.596       418009.328        421337.33       417961.602       419416.609       419189.731       417281.912       421300.885       417923.456       420343.187       419632.543       418448.779       421245.369       419486.995       418217.775        420825.46       417107.524       419776.093       417963.379       419763.904       418055.062       420486.349       419151.386       417696.761       420923.092       419871.156       419871.156       653934.326       657299.756       652878.644       656216.559       661062.725       651401.617       649354.974        655596.71       662491.942       659411.162       661588.245       668162.984       660252.301       665376.963       657796.212       664097.186        649200.96        673572.87        648865.95       670797.275       650095.322       664643.459       674638.136       653098.311       660033.463       670160.082        651906.78       657883.005       659145.533       658535.969       656339.504       666139.682       652751.607        666195.44         659867.3        654122.82         668238.1       659964.258       654064.513       666391.125       663751.375       655441.266       657615.411         659051.3       658178.573       658178.573       660890.352       661840.317        661689.23        653071.27       657858.201       663128.206       660996.778       658209.856       660126.878       660224.836       659556.355       661967.223       659531.318       653908.754       656283.977       661767.341       662262.569       660600.908        653407.61       614399.877       606601.246       280772.072        273095.56       280663.678       280453.625       276330.906       316575.347       430344.544       548256.622       608595.582       632056.067       657248.182       652643.857       651266.766       655555.097       655239.172       661802.225       656671.538        649819.97       658997.444       660259.741       650672.484       652438.592       658080.219       716936.806       950419.609       1107117.01       1213224.02       1259278.11       1251893.33       1246839.73       1199916.94       1164508.38       1145097.94       1120610.88       1081867.56       1060759.14       1040729.15       995843.568       961448.504       944069.897       917643.141       884390.812       854651.678       837688.308       813350.666       778167.417       765467.997       748759.573       721156.676       696589.313       688760.906       671072.489       646536.836       625949.467       609409.882
           0.003       265355.139        421536.66       417980.546       420594.323       418051.553        419958.34       418746.739       419152.328       421565.161       419508.675       422263.495       417817.322       420960.489       419475.045       420671.835       418049.887       420730.154       419138.687       420825.295       422589.017        417684.42       419547.153       420263.082         416610.9       420150.006       419115.615       416566.816       420104.732       416034.586       415919.968       415919.968       625115.398       659219.101       652175.127       650328.746       652585.163       655119.729       655729.719        650622.89       656067.052       659330.588       648687.853       655392.075       665017.556        656737.84       663460.068        656013.18       663424.285       664142.166       652386.266       667853.331       650133.127       664355.059       659786.461       652621.307       664879.309       646055.986        671718.62       651285.905       653304.115        670995.95       651940.309       653097.425       669386.312       660170.047       652737.834       662185.983       668417.591       660440.112       653971.823       661664.117       654133.482       654931.706       660401.737       664922.356       661799.792       661799.792       659081.649       662281.722       656485.649       662451.406       656832.422       659464.367       663735.555       655868.203       656558.253       663762.749       662329.567       654499.703       655023.023       659934.668       656409.217         658841.8       660012.918        653876.35        655868.53       616571.715       605278.698       288352.178       269105.723       279892.518       263336.257         271586.4       310867.155       435805.079       555050.967       612295.738       638931.783       645887.055       653603.256        652213.29       645207.186       654920.513       658917.991       656070.791       659523.693       661129.837       659385.843       660102.391       653957.436       657298.236       716770.601       961126.596       1109079.08       1190694.24       1235975.01       1270733.77       1237297.91       1198492.15       1177399.99       1141791.03       1123147.67       1082984.66       1059691.31       1029093.99       1011511.16       973058.673        942643.16       910265.997       885646.901       866768.059       827547.271       808592.006       797491.174       773712.277       742281.747       723608.452        700827.19       676387.351       658893.473       654641.131       643630.238       611682.801
           0.004       265355.174       411433.898       421409.927       419731.504       423256.168        419071.91       419675.027       419420.225       419838.471       418912.879       420193.248       418484.404       421527.352       419638.723       421150.969       419066.378       418462.172        420811.24       416240.781       420166.591       418680.719       418220.695        422192.53        419366.54       421388.181       421215.836       421745.109       419418.825       419666.409       413357.498       413357.498       648500.535       649928.324       660072.614       651667.979       652533.448       646704.786       655544.093       653522.295       650240.582       654537.036       652443.767       659074.512       651851.212       667149.989       657872.884        655318.03       669897.011       650291.922       668216.827       654923.489       654112.032       649571.273       657825.127       653041.418       661042.369       658790.649       653282.245        674373.98       650346.883       656968.547       670892.093       657273.066       650144.625       667795.788       665221.009       653457.024       669052.738       658541.196       655292.785       667542.579       657979.708       655379.976       658399.242       654438.844       655863.951       655863.951       656667.686       660760.481       661818.541       658941.072       661570.871       658856.307       656726.479       662359.373       662358.997       663458.565       657787.875       658474.507       660834.193       654487.966       662480.824       658622.914       659437.037       661570.484       651920.237        611706.75       606782.441       281409.515       279512.143       279124.637       272959.926       280726.066       309953.896       414171.293       558183.798       604056.365       637909.475       656239.705       644937.765       653660.824       657740.346       658646.761         657007.1       654357.887       658207.302       658244.271       663293.647        654558.82       660650.603       656733.003       707125.381       939348.757       1119851.27       1204527.52       1267290.42       1253633.63       1235224.13       1205169.51       1175978.36       1141769.22       1126982.41       1082268.87       1054750.12       1028777.75       1008119.49       969894.896       942959.245       914072.551       892202.971       859514.523       832735.221       812904.941       781366.323       761035.477       753645.217       731345.712       694923.395       680608.531       671022.111       641790.467       625629.133       609696.002
           0.005       265355.207       417231.447       418932.617       416223.739       418377.753       421439.276       418219.733       419409.556       419452.791       419440.999       419722.486       418723.268       418986.574       420199.928       418316.899       421533.607       417587.174       420452.039       420374.446       419593.408       422211.455       419555.171       419856.102       422219.205       422340.313       420016.208       420988.377       417442.556       420727.566       413866.487       413866.487       638679.383       651682.671       654845.107       653893.957       651333.687       650765.917        651918.98       657372.292       652768.181       651784.714       654916.953       654785.084       651848.429       662220.815       655885.934       667493.477       652371.785       670333.313       658190.305       649635.495        673109.01       649138.131        645984.12       675249.288       657650.253       651410.644        675020.36       647817.844       663178.836        664352.77       649658.081       672768.365       654916.377        657186.88       672752.874        655068.23       654028.705       667572.909        661788.11       652441.719       661164.031       667694.247       661718.441       655039.063       655546.056       655546.056       659442.208       661625.217       662265.395        656123.66       657789.882       655205.016       650663.788       656768.511       664782.455       654813.067       656950.278       663229.467        660211.21       664115.633       655210.618       654384.308       654797.209       658953.331       660127.567       615454.096       606376.885       294027.296       270146.368       266168.416       280804.222       284572.436       308750.714       427433.495       549592.762        596945.43       645979.247       642742.196       649501.571       652904.005        651311.56       653830.146       665096.227       656683.054       656758.771       662437.148       657305.122       653623.911       655070.838       654642.088       710225.628       947540.084       1086049.85       1200790.53       1252377.08       1257933.12       1248341.75       1212655.77       1169957.92       1145045.86        1110583.7       1087388.33       1062390.17       1041780.71       1003440.75       970878.361       939702.597       916209.008       876603.424       859594.854       838460.613        811015.82       793551.963       774676.778       755967.298       710040.603       700550.346       684183.271        662599.21       649448.141        636205.25       627713.062
           0.006       265355.186       421788.122       414639.271       419557.355       422544.394       416266.909       418387.573       421659.571       419174.656       420010.325       418934.119       422036.457       418307.773       420949.895       417734.727       419444.175       417114.537       419508.687       418938.383       422595.931       420229.078       421686.524       418673.892       421292.555       419931.052       419233.582       419425.051       420906.731       419354.604       411361.869       411361.869       635205.922       651961.251       650760.557        650502.93       653280.089        652561.29        650543.26       655261.621       654515.789       650540.461        657358.14       651006.084       657824.848       658307.174       656554.745       658934.941       668169.306       656943.143       666957.321       662417.895       651198.411       663902.218       670190.378       646515.948       672033.914       656378.842       655639.562       670854.218       646086.259       668113.143       659366.506        643182.64       659550.198       656835.214       658816.846       657720.495       658986.028       653283.375       666874.467       654081.659       666244.488       667307.134       652241.873       661509.824       665762.021       665762.021       660209.399       658276.683       662241.661        656775.72       660842.303       664364.005       663356.096        656570.19       660453.128       659665.731       653372.407       655472.239        653366.41       654603.304       658698.321       653127.404         651962.3       656528.733       653872.234        616912.33       606646.318       287342.701       284271.437       273079.352       273403.934       284434.668       312504.083       422170.025       565838.291       601452.418       629188.181       641613.436       655863.842       649098.575       657733.055       660246.374       659572.612       658913.617       651867.866       658621.288       659948.939       654123.475         658950.7       654497.257       703753.578       944638.806       1091670.39       1199693.64       1240706.21       1249532.27       1249570.68       1209067.05       1187078.68       1140749.15       1115256.55       1086488.33       1068408.69       1027572.41        1002280.9       967921.939       946447.648       914980.804       893689.808       867879.954       820041.424       806798.938       787659.903       771775.386       742486.788       733289.109       712006.151       682575.282       658041.331       648180.275        626947.26        608432.99
           0.007       265355.212       415695.343       419575.995       418790.512       420483.805       417591.327       419485.701       420412.943       419279.762       421231.428       418026.929       417881.641         420075.6        419863.51       419030.433       418181.977       419267.675       418873.162       418211.289       423089.208       419944.582       421605.422       419510.377        419936.36        421765.74       418249.396       415145.821       420630.936       417846.556       414135.627       414135.627        641162.39       650294.389       651088.199       650280.966       651799.907       653094.215       652816.084       655454.094       656944.062       653553.834       649323.318       655646.409       661088.096       653583.376       663517.813       663723.126       662032.468       653718.885       662125.625       658819.189       666471.462       649627.754        649804.05       675106.438       645112.227       670656.348       655306.336        649104.57       671991.633        646255.97       656796.759       668407.364       646131.657       659450.336       669708.312       652110.483        658491.94        671501.18        655423.45       654449.393       669527.328       659470.734        655056.33        667589.19       666233.145       666233.145       657722.282       659183.844       661087.098       660103.544       656844.946        657064.09       660137.447       657841.817       660872.233       659685.159       656569.301       654491.388       657695.476       663072.246       664585.293        653097.62       652965.686       653150.234       655996.207       615778.785       602376.558       274262.944       272565.035       288562.928       271684.393       272152.658        309524.75       429738.044       555279.288       593411.846       643153.559       651078.881       648208.508       656093.721       654397.223       654293.528       662063.153       655875.947       653818.315       660791.324        652226.27        656501.42        658219.41       657147.744       708789.991       936256.607          1108474       1193993.52       1276813.74       1255319.64       1230708.26        1209392.8       1186399.25       1140823.23       1124267.09       1089399.12       1061196.45       1030639.35       1005286.31       966921.701        941478.96       918785.292       888763.071       848714.439       831328.557       817129.576       779973.229       766004.635       746118.408       731229.256       701905.701       688978.873       674508.158       639543.517        618516.62       612732.305
           0.008       265355.161       409642.866       422977.993       418513.272       419842.187       421809.129       419328.683       418496.959       419226.957       418474.425       418691.471       421539.496       421986.091       423322.885       419114.092       420328.319       418141.945       418261.778       418901.802       417135.717       420699.493       417604.614       421717.927       422858.968       419564.715       422900.704       418490.215       420291.993       418987.378       416399.479       416399.479         643108.3       651213.136       650002.478       658006.618       645742.875       646182.838       652784.887       652444.284       655101.977        652615.83       647777.948       650682.346       657441.068       653654.126       650554.911       661186.458       657195.855       646605.739       667988.354       652645.571       667291.396       658403.507       644066.696       672316.671       652911.349       657349.407       666882.441       645982.862       672100.366       650080.659       669874.625       657468.484       652640.231       672575.982        650521.17       664116.625       671034.277       652861.769       659150.988       669498.818       656112.825       653162.106        666997.83       664084.857       660134.411       660134.411       655331.744       658190.338       659799.443       657961.313       657430.902       662014.002         664347.6       659316.075       653566.494       658561.954       663553.614       655968.399       655239.273       660901.957       660532.039       664309.602       660412.634       652832.788       652695.969       620600.309       613810.533       288433.307       293075.842       267717.224       274483.098       280309.221       313778.023       425175.445       531518.115         621483.3        636395.67       635284.444       654158.407       657591.393       655559.638        664932.95        660261.34       658842.744       665261.733       655373.555       654402.222       653986.218        653719.22       659992.179       696443.687       933659.895       1095926.85       1188352.35       1256285.31       1251614.88       1234416.43       1215204.02       1183200.43       1149113.55       1115790.96       1087192.35       1064567.46       1034977.89       997490.146       974644.182       944572.986       922285.613       884289.475       861010.403       840793.794       800697.158       778858.941       769012.307       751822.234       725182.169       707482.768       693013.005       664663.954       638991.291       626540.617       617775.525